   * xtb version 6.5.1 (b24c23e) compiled by 'conda@728c89f4b128' on 2022-07-12
          program call               : xtb water.xyz --gfn2 --alpb water --chrg 0 --uhf 0 --ohess -P 6

   ID    Z sym.   atoms
    1    8 O      1
    2    1 H      2, 3

      * Solvation model:               ALPB
        Solvent                        water
        Solvent mass                       1.8000E+01 g/mol
          :  Hamiltonian                  GFN2-xTB          :
 * total energy  :    -4.8107902 Eh     change       -0.6885159E-11 Eh
 * total energy  :    -4.9396001 Eh     change       -0.1288099E+00 Eh
 * total energy  :    -5.0622871 Eh     change       -0.1226869E+00 Eh
 * total energy  :    -5.0342577 Eh     change        0.2802940E-01 Eh
 * total energy  :    -5.0606950 Eh     change       -0.2643732E-01 Eh
 * total energy  :    -5.0780766 Eh     change       -0.1738155E-01 Eh
 * total energy  :    -5.0847765 Eh     change       -0.6699967E-02 Eh
 * total energy  :    -5.0850161 Eh     change       -0.2395945E-03 Eh
 * total energy  :    -5.0850207 Eh     change       -0.4621394E-05 Eh
 * total energy  :    -5.0848162 Eh     change        0.2045443E-03 Eh
 * total energy  :    -5.0849982 Eh     change       -0.1819678E-03 Eh
 * total energy  :    -5.0850212 Eh     change       -0.2306737E-04 Eh
 * total energy  :    -5.0850213 Eh     change       -0.4018795E-07 Eh
   *** GEOMETRY OPTIMIZATION CONVERGED AFTER 13 ITERATIONS ***

 final structure:
================
3
 xtb: 6.5.1 (b24c23e)
O            0.00002974922199       -0.38112213862979        0.00067855266180
H            0.77442716468247        0.19054968126320        0.00016073398436
H           -0.77445691390446        0.19057245736658        0.00016071335383

          :  Hamiltonian                  GFN2-xTB          :
         :: gradient norm              0.000134642452 Eh/a0 ::
         :: HOMO-LUMO gap             14.762279671661 eV    ::
         :: SCC energy                -5.118321037698 Eh    ::
         :: -> dispersion             -0.000127142196 Eh    ::
         :: -> Gsolv                  -0.019250388693 Eh    ::
         :: repulsion energy           0.033299762773 Eh    ::

    * Orbital Energies and Occupations

         #    Occupation            Energy/Eh            Energy/eV
      -------------------------------------------------------------
         1        2.0000           -0.6700728             -18.2336
         2        2.0000           -0.5483882             -14.9224
         3        2.0000           -0.4950341             -13.4706
         4        2.0000           -0.4344054             -11.8208 (HOMO)
         5                          0.1080984               2.9415 (LUMO)
         6                          0.2789368               7.5903
      -------------------------------------------------------------
                  HL-Gap            0.5425038 Eh           14.7623 eV

     #   Z          covCN         q      C6AA      α(0)
     1   8 O        1.610    -0.720    28.234     7.172
     2   1 H        0.805     0.360     0.566     1.181
     3   1 H        0.805     0.360     0.566     1.181

Wiberg/Mayer (AO) data.
largest (>0.10) Wiberg bond orders for each atom

     #   Z sym  total        # sym  WBO       # sym  WBO       # sym  WBO
 ---------------------------------------------------------------------------
     1   8 O    1.741 --     2 H    0.870     3 H    0.870
     2   1 H    0.871 --     1 O    0.870
     3   1 H    0.871 --     1 O    0.870
 ---------------------------------------------------------------------------

molecular dipole:
                 x           y           z       tot (Debye)
 q only:       -0.000       0.777      -0.001
   full:       -0.000       0.975      -0.001       2.479

 projected vibrational frequencies (cm⁻¹)
eigval :       -0.00    -0.00    -0.00     0.00     0.00     0.00
eigval :     1444.54  3593.87  3596.16

   temp. (K)  partition function   enthalpy   heat capacity  entropy
                                   cal/mol     cal/K/mol   cal/K/mol   J/K/mol
 298.15  VIB   1.00                    3.882      0.091      0.015
         ROT   43.0                  888.752      2.981     10.457
         INT   43.1                  892.634      3.072     10.472
         TR   0.740E+26             1481.254      4.968     34.593
         TOT                        2373.8880     8.0399    45.0651   188.5523

       T/K    H(0)-H(T)+PV         H(T)/Eh          T*S/Eh         G(T)/Eh
   ------------------------------------------------------------------------
    298.15    0.378303E-02    0.234540E-01    0.214119E-01    0.204215E-02
   ------------------------------------------------------------------------

         :::::::::::::::::::::::::::::::::::::::::::::::::::::
         ::                  THERMODYNAMIC                  ::
         :::::::::::::::::::::::::::::::::::::::::::::::::::::
         :: total free energy          -5.082979127114 Eh   ::
         ::.................................................::
         :: total energy               -5.085021274900 Eh   ::
         :: zero point energy           0.019670991119 Eh   ::
         :: G(RRHO) w/o ZPVE           -0.017628843333 Eh   ::
         :: G(RRHO) contrib.            0.002042147786 Eh   ::
         :::::::::::::::::::::::::::::::::::::::::::::::::::::

           -------------------------------------------------
          | TOTAL ENERGY               -5.085021274900 Eh   |
          | TOTAL ENTHALPY             -5.061567252405 Eh   |
          | TOTAL FREE ENERGY          -5.082979127114 Eh   |
          | GRADIENT NORM               0.000134648891 Eh/α |
          | HOMO-LUMO GAP              14.762279677002 eV   |
           -------------------------------------------------

 * finished run on 2022/08/24 at 16:40:00.026
